   27
Geometry Step: 0
   Ti      0.00000000      1.96794000      6.35973568
    O      0.00000000      0.00000000      6.00000000
    O      1.96794000      1.96794000      6.71947137
   Ti      0.00000000      5.90382000      6.35973568
    O      0.00000000      3.93588000      6.00000000
    O      1.96794000      5.90382000      6.71947137
   Ti      0.00000000      9.83970000      6.35973568
    O      0.00000000      7.87176000      6.00000000
    O      1.96794000      9.83970000      6.71947137
   Ti      0.00000000     13.77558000      6.35973568
    O      0.00000000     11.80764000      6.00000000
    O      1.96794000     13.77558000      6.71947137
    O      3.92396508     14.05181458      8.31808390
    O      3.93170486      5.56063722      8.28306375
    O      1.93717046      0.26838019      9.54597040
   Ti      1.96512020      1.97301148      8.64034383
   Ti      1.86068195     15.12408777     11.59871542
    O      1.95699629      6.77945557      9.90918818
    O      1.85327367      1.14558502     13.00901556
    O      3.82829469     15.56832484     11.70042040
   Ti      1.96368028      5.47089357      8.64550855
   Ti      1.95655525     14.27714882      8.68978446
   Ti      3.82451737      1.17367912     13.01733718
    O      1.90629266     13.54970360     10.44199349
    O      1.86090980     14.10962434     13.17333128
    O      1.95871593      3.72485642      9.38788985
    O      0.00032595      1.99860930      8.29799231
