   27
Geometry Step: 0
   Ti      0.00000000      1.96794000      6.35973568
    O      0.00000000      0.00000000      6.00000000
    O      1.96794000      1.96794000      6.71947137
   Ti      0.00000000      5.90382000      6.35973568
    O      0.00000000      3.93588000      6.00000000
    O      1.96794000      5.90382000      6.71947137
   Ti      0.00000000      9.83970000      6.35973568
    O      0.00000000      7.87176000      6.00000000
    O      1.96794000      9.83970000      6.71947137
   Ti      0.00000000     13.77558000      6.35973568
    O      0.00000000     11.80764000      6.00000000
    O      1.96794000     13.77558000      6.71947137
   Ti      1.92443452      7.98607668     11.34683139
    O      3.89329649      8.44224506     11.45171216
   Ti      1.96130705      9.22542263      8.55501438
    O      3.93260877     14.05785279      8.32287806
    O      3.93337287      5.77534970      8.35118934
    O      1.97694072      3.91969750      9.26664713
    O      0.00564541      9.52366526      8.37391078
   Ti      1.97084925      5.70817763      8.62677926
    O      2.01239870     13.10804796     10.07133219
    O      0.00233598      2.06500420      8.34764988
    O      1.93725725      6.43499403     12.25848771
    O      1.95640478      7.53511605      9.49241504
   Ti      1.97251055      2.07187591      8.62490072
    O      1.98301168      0.27699830      9.24375202
   Ti      1.96995748     14.20354827      8.66483622
