   27
Geometry Step: 0
   Ti      0.00000000      1.96794000      6.35973568
    O      0.00000000      0.00000000      6.00000000
    O      1.96794000      1.96794000      6.71947137
   Ti      0.00000000      5.90382000      6.35973568
    O      0.00000000      3.93588000      6.00000000
    O      1.96794000      5.90382000      6.71947137
   Ti      0.00000000      9.83970000      6.35973568
    O      0.00000000      7.87176000      6.00000000
    O      1.96794000      9.83970000      6.71947137
   Ti      0.00000000     13.77558000      6.35973568
    O      0.00000000     11.80764000      6.00000000
    O      1.96794000     13.77558000      6.71947137
    O      1.55037534      9.04632018      7.82304947
    O      0.14582836     13.00791429      8.61968226
    O      0.01298320      2.41314313      8.17221189
   Ti      1.96089709      5.96253086      8.78616670
   Ti      2.44499269     14.15959956     11.71181929
    O      1.95716224      7.56277403     10.00714060
   Ti      2.05180601     13.30286715      8.75041108
    O      1.75678029      0.29177034     11.47053148
    O      3.93010620      6.12567512      8.35551498
    O      2.15451375     11.26169960      9.04517363
   Ti      1.85118377      9.50717913      9.45794050
   Ti      1.87004285      1.98244225     11.14960563
    O      1.98886566      4.42686743      9.77755961
    O      2.61672484     15.46009454      9.22707705
    O      0.47626428     13.63172111     12.19717384
