   27
Geometry Step: 0
   Ti      0.00000000      1.96794000      6.35973568
    O      0.00000000      0.00000000      6.00000000
    O      1.96794000      1.96794000      6.71947137
   Ti      0.00000000      5.90382000      6.35973568
    O      0.00000000      3.93588000      6.00000000
    O      1.96794000      5.90382000      6.71947137
   Ti      0.00000000      9.83970000      6.35973568
    O      0.00000000      7.87176000      6.00000000
    O      1.96794000      9.83970000      6.71947137
   Ti      0.00000000     13.77558000      6.35973568
    O      0.00000000     11.80764000      6.00000000
    O      1.96794000     13.77558000      6.71947137
    O      3.93226727      5.88903847      8.36263144
    O      3.92844121      9.65219867      8.39167904
   Ti      2.18975254     11.99464916     11.37842484
    O      1.91197453      1.02583124      9.91396369
    O      2.93436766      9.54128078     11.95816553
   Ti      1.95942703      9.20846814      8.62264153
    O      0.16556208     13.92693430      8.32820409
    O      2.13623956     11.99946302      9.52672622
    O      1.95765846      7.54507295      9.55141399
    O      1.96178475      4.04333706      9.42391167
    O      3.91140969      1.90267191      4.40931517
   Ti      1.95623216     15.72860468      5.90391044
   Ti      1.99796125      2.31435550      8.68139677
    O      0.19176916     12.01293797     11.91308339
   Ti      1.96836257      5.79746197      8.69766382
