   27
Geometry Step: 0
   Ti      0.00000000      1.96794000      6.35973568
    O      0.00000000      0.00000000      6.00000000
    O      1.96794000      1.96794000      6.71947137
   Ti      0.00000000      5.90382000      6.35973568
    O      0.00000000      3.93588000      6.00000000
    O      1.96794000      5.90382000      6.71947137
   Ti      0.00000000      9.83970000      6.35973568
    O      0.00000000      7.87176000      6.00000000
    O      1.96794000      9.83970000      6.71947137
   Ti      0.00000000     13.77558000      6.35973568
    O      0.00000000     11.80764000      6.00000000
    O      1.96794000     13.77558000      6.71947137
    O      1.96490004      7.96706297      9.26591294
    O      3.93547152      9.78910890      8.34837031
   Ti      2.03862427      3.89098834     11.29172804
    O      0.00457176      6.08739738      8.33811963
   Ti      1.98356884      2.60703253      8.59745965
   Ti      1.96861348     13.32390908      8.67980594
    O      1.98246464     14.39344429     10.11606063
    O      1.96830989     11.57039727      9.24751408
   Ti      1.96820408      9.76794355      8.62477206
    O      0.00380451     13.49559736      8.32367429
    O      2.01301251      4.43620318      9.43985091
    O      2.01289547      2.16322913     10.52155385
    O      0.01333185      2.42368160      8.30649083
   Ti      1.97153589      6.16456631      8.60562032
    O      0.07833081      4.07442081     11.63018277
