   27
Geometry Step: 0
   Ti      0.00000000      1.96794000      6.35973568
    O      0.00000000      0.00000000      6.00000000
    O      1.96794000      1.96794000      6.71947137
   Ti      0.00000000      5.90382000      6.35973568
    O      0.00000000      3.93588000      6.00000000
    O      1.96794000      5.90382000      6.71947137
   Ti      0.00000000      9.83970000      6.35973568
    O      0.00000000      7.87176000      6.00000000
    O      1.96794000      9.83970000      6.71947137
   Ti      0.00000000     13.77558000      6.35973568
    O      0.00000000     11.80764000      6.00000000
    O      1.96794000     13.77558000      6.71947137
    O      1.93954277      0.23582112      9.37088229
    O      1.97366703     10.59218922     10.28362242
   Ti      1.96870020      9.66463269      8.69370980
   Ti      3.93500604      7.45125282      9.20433774
   Ti      1.96224335     14.24217126      8.67009755
    O      3.92827383     14.03431553      8.33487935
    O      3.93411273      5.88264973      8.32091386
    O      3.93575182      9.34229321      8.37820294
    O      1.96731715      7.79563836      9.44545039
    O      1.97314554     13.32712519     10.24927409
    O      3.92838841      1.93066119      8.32890534
    O      0.02196363     12.00497324     11.94869500
   Ti      1.95890587      1.93623948      8.65041357
   Ti      1.99152529     11.95470401     11.46683004
    O      1.95643441      3.43570928      9.68632023
