   27
Geometry Step: 0
   Ti      0.00000000      1.96794000      6.35973568
    O      0.00000000      0.00000000      6.00000000
    O      1.96794000      1.96794000      6.71947137
   Ti      0.00000000      5.90382000      6.35973568
    O      0.00000000      3.93588000      6.00000000
    O      1.96794000      5.90382000      6.71947137
   Ti      0.00000000      9.83970000      6.35973568
    O      0.00000000      7.87176000      6.00000000
    O      1.96794000      9.83970000      6.71947137
   Ti      0.00000000     13.77558000      6.35973568
    O      0.00000000     11.80764000      6.00000000
    O      1.96794000     13.77558000      6.71947137
    O      3.91967084     10.21299154      8.31303124
    O      3.92406588      5.60011985      8.32656203
    O      3.93488915      1.88290309      8.34848505
    O      1.96783381      3.59428276      9.29964317
   Ti      3.83900224      8.48111438     10.58802121
    O      1.96037536      0.00091963      9.27992856
   Ti      1.96356657     13.93285650      8.62559728
    O      1.93765613      9.09222913     10.13368259
    O      3.84524920      8.15121300     12.33172970
    O      1.94454000     12.14758769      9.29477418
   Ti      1.94988601     10.35185904      8.64927841
   Ti      1.95740443      5.37255525      8.64003124
    O      1.91511154      6.48112503     10.09896559
   Ti      1.96674222      1.80527571      8.62401274
    O      3.93273902     13.90326723      8.34534522
