   27
Geometry Step: 0
   Ti      0.00000000      1.96794000      6.35973568
    O      0.00000000      0.00000000      6.00000000
    O      1.96794000      1.96794000      6.71947137
   Ti      0.00000000      5.90382000      6.35973568
    O      0.00000000      3.93588000      6.00000000
    O      1.96794000      5.90382000      6.71947137
   Ti      0.00000000      9.83970000      6.35973568
    O      0.00000000      7.87176000      6.00000000
    O      1.96794000      9.83970000      6.71947137
   Ti      0.00000000     13.77558000      6.35973568
    O      0.00000000     11.80764000      6.00000000
    O      1.96794000     13.77558000      6.71947137
   Ti      1.96934620      0.02335044      5.47415500
    O      3.93577470      1.87716788      8.25905430
    O      3.93569173     13.55425102      8.30429747
    O      0.00006889      9.93741007      8.33022357
    O      1.96781469     11.71263550      9.32791948
   Ti      1.96560282      3.87932748     11.27703746
   Ti      1.96784876      9.94754203      8.62313516
    O      1.97086744      2.23155956     10.51973087
    O      1.96741634      5.14706244      9.96932902
    O      3.93365177      3.99177523     11.74792310
    O      1.96812703     14.85707597      9.83943300
    O      0.00304848      6.29480498      8.30366882
    O      1.96840965      8.17408963      9.31712205
   Ti      1.96822036     13.50212541      8.69449243
   Ti      1.96544961      6.39755946      8.64395144
