   27
Geometry Step: 0
   Ti      0.00000000      1.96794000      6.35973568
    O      0.00000000      0.00000000      6.00000000
    O      1.96794000      1.96794000      6.71947137
   Ti      0.00000000      5.90382000      6.35973568
    O      0.00000000      3.93588000      6.00000000
    O      1.96794000      5.90382000      6.71947137
   Ti      0.00000000      9.83970000      6.35973568
    O      0.00000000      7.87176000      6.00000000
    O      1.96794000      9.83970000      6.71947137
   Ti      0.00000000     13.77558000      6.35973568
    O      0.00000000     11.80764000      6.00000000
    O      1.96794000     13.77558000      6.71947137
   Ti      1.96568997      2.13959458      8.61927704
    O      1.98253786      4.02224104      9.11474855
   Ti      2.03715080     14.29430441      8.67790860
    O      3.92466886      2.07329757      8.37794393
    O      1.98596506      0.31615309      9.06957165
    O      3.92963030      5.85295356      8.36425308
    O      2.12086052     11.33708274      9.64314230
    O      1.97258199      7.71146071      9.11682070
   Ti      0.07880967     11.41714922     10.07340046
    O      0.06486907     13.93076144      8.37189388
   Ti      1.97144998      5.87153605      8.63471176
    O      0.06021787      9.90595333      8.48966648
   Ti      2.01324358      9.53312649      8.62332901
    O      0.80482851     10.96824909     12.21511724
    O      0.02379858     13.42281272     10.88500273
