   27
Geometry Step: 0
   Ti      0.00000000      1.96794000      6.35973568
    O      0.00000000      0.00000000      6.00000000
    O      1.96794000      1.96794000      6.71947137
   Ti      0.00000000      5.90382000      6.35973568
    O      0.00000000      3.93588000      6.00000000
    O      1.96794000      5.90382000      6.71947137
   Ti      0.00000000      9.83970000      6.35973568
    O      0.00000000      7.87176000      6.00000000
    O      1.96794000      9.83970000      6.71947137
   Ti      0.00000000     13.77558000      6.35973568
    O      0.00000000     11.80764000      6.00000000
    O      1.96794000     13.77558000      6.71947137
   Ti      1.96794000      1.79162681      8.61892297
   Ti      1.96794000      5.37605497      8.64454275
    O      0.00000000      7.87176000     11.82895123
    O      0.00000000      5.59755657      8.33126674
    O      0.00000000     13.92970158      8.33619266
   Ti      1.96794000     10.36746503      8.64454275
    O      1.96794000      9.27105191     10.20578802
    O      1.96794000      3.59291274      9.23622814
    O      1.96794000     12.15060726      9.23622814
    O      1.96794000      6.47246809     10.20578802
    O      0.00000000     10.14596343      8.33126674
   Ti      1.96794000      7.87176000     11.32964988
    O      1.96794000      0.00000000      9.30220219
   Ti      1.96794000     13.95189320      8.61892297
    O      0.00000000      1.81381843      8.33619266
