   27
Geometry Step: 0
   Ti      0.00000000      1.96794000      6.35973568
    O      0.00000000      0.00000000      6.00000000
    O      1.96794000      1.96794000      6.71947137
   Ti      0.00000000      5.90382000      6.35973568
    O      0.00000000      3.93588000      6.00000000
    O      1.96794000      5.90382000      6.71947137
   Ti      0.00000000      9.83970000      6.35973568
    O      0.00000000      7.87176000      6.00000000
    O      1.96794000      9.83970000      6.71947137
   Ti      0.00000000     13.77558000      6.35973568
    O      0.00000000     11.80764000      6.00000000
    O      1.96794000     13.77558000      6.71947137
    O      3.92721865      5.73695339      8.34348844
    O      3.92722905      2.13819546      8.34343641
   Ti      1.97443803      1.40902826      8.57152159
    O      1.95469588      8.22630970      9.02703163
   Ti      1.97405751      6.46473435      8.57279564
    O      3.93394924     10.11631093      8.31940788
    O      3.73403539      3.93846777     11.11228233
    O      1.95494967     15.39492331      9.02740633
   Ti      1.96600057     10.08401081      8.60850825
    O      1.96972507     11.80922231      9.46435168
    O      1.81795990      2.65084997      9.91800135
   Ti      0.44014807      3.93740696      9.39211664
   Ti      1.96602696     13.53409620      8.60850303
    O      3.93400138     13.50238510      8.31955720
    O      1.81728403      5.22681848      9.91641647
