   27
Geometry Step: 0
   Ti      0.00000000      1.96794000      6.35973568
    O      0.00000000      0.00000000      6.00000000
    O      1.96794000      1.96794000      6.71947137
   Ti      0.00000000      5.90382000      6.35973568
    O      0.00000000      3.93588000      6.00000000
    O      1.96794000      5.90382000      6.71947137
   Ti      0.00000000      9.83970000      6.35973568
    O      0.00000000      7.87176000      6.00000000
    O      1.96794000      9.83970000      6.71947137
   Ti      0.00000000     13.77558000      6.35973568
    O      0.00000000     11.80764000      6.00000000
    O      1.96794000     13.77558000      6.71947137
    O      1.89769430     13.33379249     10.25502882
    O      0.02023947     14.22807127      8.29073336
    O      3.61192610     11.80043941      9.06460351
   Ti      1.96875178      2.14840669      8.61323580
    O      1.98249396      0.35774412      9.31200804
   Ti      1.99853291      9.26262851      8.64591505
    O      0.00100510      2.09834194      8.33469662
    O      1.99535980      7.50322294      9.30511076
    O      0.02693499      9.37992965      8.28902842
   Ti      0.92750390     11.79444241     10.38143698
    O      0.00377924      5.76718979      8.33560308
   Ti      1.99126861     14.34459544      8.65135932
    O      1.90501412     10.26801508     10.25644263
    O      1.96646612      3.93130317      9.28792021
   Ti      1.96583182      5.71692671      8.61878246
