   27
Geometry Step: 0
   Ti      0.00000000      1.96794000      6.35973568
    O      0.00000000      0.00000000      6.00000000
    O      1.96794000      1.96794000      6.71947137
   Ti      0.00000000      5.90382000      6.35973568
    O      0.00000000      3.93588000      6.00000000
    O      1.96794000      5.90382000      6.71947137
   Ti      0.00000000      9.83970000      6.35973568
    O      0.00000000      7.87176000      6.00000000
    O      1.96794000      9.83970000      6.71947137
   Ti      0.00000000     13.77558000      6.35973568
    O      0.00000000     11.80764000      6.00000000
    O      1.96794000     13.77558000      6.71947137
    O      2.16718350      5.77496464     11.30446084
    O      1.96269681      1.90380362      3.90111687
   Ti      1.80876717      5.99861298      9.31273700
   Ti      2.00955631      9.76685571      8.73789625
   Ti      2.01536944      2.17604218      8.64386034
    O      3.92638320     13.45639129      8.43471024
    O      2.03131793     11.37913493     10.09734742
    O      0.04306374      1.90480204      8.52432372
    O      0.22834811      8.47783063     10.49642300
   Ti      1.96642985     12.97941418      8.67224789
   Ti      2.41284411      4.15055866     12.18812406
    O      3.88727724      6.03439308      8.34581958
    O      1.96679466      7.85244699      8.60701390
    O      2.04962600      4.04544470      8.63325703
    O      0.00958709      9.86747226      8.36164305
