   27
Geometry Step: 0
   Ti      0.00000000      1.96794000      6.35973568
    O      0.00000000      0.00000000      6.00000000
    O      1.96794000      1.96794000      6.71947137
   Ti      0.00000000      5.90382000      6.35973568
    O      0.00000000      3.93588000      6.00000000
    O      1.96794000      5.90382000      6.71947137
   Ti      0.00000000      9.83970000      6.35973568
    O      0.00000000      7.87176000      6.00000000
    O      1.96794000      9.83970000      6.71947137
   Ti      0.00000000     13.77558000      6.35973568
    O      0.00000000     11.80764000      6.00000000
    O      1.96794000     13.77558000      6.71947137
   Ti      1.96874179      9.94934148      8.63313352
    O      1.98926345     11.77923989      9.12182340
    O      0.00016692      9.89336511      8.31080866
    O      2.18356882      0.01175992      8.82363779
   Ti      2.34263645      0.31955823     10.67582742
    O      0.06864552     13.69638295      8.32773312
    O      1.73458390      4.89799218      9.87314232
    O      0.37377818      0.45955662     11.05874540
   Ti      2.04017479     13.74871751      8.73225621
   Ti      1.05945578      3.39768941     10.54575828
    O      2.48593476      2.25153868     10.76707908
    O      3.91246112      6.22574205      8.30787296
    O      1.94948578      8.13610182      9.30194289
    O      2.24740316     14.12283478     10.69196451
   Ti      1.93654073      6.36549374      8.64102658
