   27
Geometry Step: 0
   Ti      0.00000000      1.96794000      6.35973568
    O      0.00000000      0.00000000      6.00000000
    O      1.96794000      1.96794000      6.71947137
   Ti      0.00000000      5.90382000      6.35973568
    O      0.00000000      3.93588000      6.00000000
    O      1.96794000      5.90382000      6.71947137
   Ti      0.00000000      9.83970000      6.35973568
    O      0.00000000      7.87176000      6.00000000
    O      1.96794000      9.83970000      6.71947137
   Ti      0.00000000     13.77558000      6.35973568
    O      0.00000000     11.80764000      6.00000000
    O      1.96794000     13.77558000      6.71947137
    O      0.01290174      5.84905727      8.35610584
   Ti      2.31036883     14.39131984      9.42460062
   Ti      2.70715390     11.37963592     11.30036333
   Ti      1.91212781      9.66720826      8.71615583
    O      2.00839177     12.95004703     10.56605750
    O      1.89592759      7.90449410      9.46986494
    O      1.93742780      3.67550893      9.55494973
    O      3.87978714      9.93968047      8.46427171
    O      3.70615112     12.37083109     12.90349439
   Ti      1.93227039      2.08203619      8.71736640
    O      0.51163815     10.71424923     11.01405051
   Ti      3.90504937      7.29200458      9.42646220
    O      1.93227598      0.39460495      9.75285897
    O      3.83005311     14.11581851      8.40635927
    O      3.90298370      1.91555601      8.35470966
