   27
Geometry Step: 0
   Ti      0.00000000      1.96794000      6.35973568
    O      0.00000000      0.00000000      6.00000000
    O      1.96794000      1.96794000      6.71947137
   Ti      0.00000000      5.90382000      6.35973568
    O      0.00000000      3.93588000      6.00000000
    O      1.96794000      5.90382000      6.71947137
   Ti      0.00000000      9.83970000      6.35973568
    O      0.00000000      7.87176000      6.00000000
    O      1.96794000      9.83970000      6.71947137
   Ti      0.00000000     13.77558000      6.35973568
    O      0.00000000     11.80764000      6.00000000
    O      1.96794000     13.77558000      6.71947137
    O      3.93213847      9.44057726      8.31112442
    O      1.96585559      0.42045751      9.27070454
    O      1.96546153     10.38559222     10.15886443
   Ti      1.94824259     11.82095464     11.23379682
    O      3.93541808     14.21127521      8.30557760
    O      1.97332691     13.25755412     10.16098446
    O      1.96608573      3.95592128      9.33486666
    O      3.93516588      2.18865961      8.33571917
   Ti      1.96763652     14.38208674      8.61860374
    O      3.91677572     11.79995203     11.70956182
    O      0.00051420      5.71695632      8.33883763
   Ti      1.96672051      5.70736120      8.61966869
   Ti      1.96497365      9.25806048      8.62405936
    O      1.96825208      7.48465873      9.28213918
   Ti      1.96792114      2.18556478      8.61704347
