   27
Geometry Step: 0
   Ti      0.00000000      1.96794000      6.35973568
    O      0.00000000      0.00000000      6.00000000
    O      1.96794000      1.96794000      6.71947137
   Ti      0.00000000      5.90382000      6.35973568
    O      0.00000000      3.93588000      6.00000000
    O      1.96794000      5.90382000      6.71947137
   Ti      0.00000000      9.83970000      6.35973568
    O      0.00000000      7.87176000      6.00000000
    O      1.96794000      9.83970000      6.71947137
   Ti      0.00000000     13.77558000      6.35973568
    O      0.00000000     11.80764000      6.00000000
    O      1.96794000     13.77558000      6.71947137
    O      3.90443635     10.03621602      8.27559556
    O      0.04141274     13.65916676      8.34066450
    O      1.86602307      3.00867286     10.13603928
    O      2.09343685     12.47685224      9.95469241
    O      3.92471646      1.94249943      8.32589478
    O      2.00742245     15.65610521      9.24807319
    O      0.46750418     10.18924752     11.49872362
    O      1.64120584      6.77627964     11.21747398
   Ti      1.60070812      5.10322827     12.25925125
   Ti      3.62812311      6.78062100     10.67318845
   Ti      1.99387164     13.84765271      8.68495703
   Ti      1.95617225      1.74638019      8.69852274
   Ti      1.96637838     11.84337738      5.36396164
    O      3.56555031      5.31054757     12.04059511
    O      3.72255868      6.37488804      8.93419314
