   27
Geometry Step: 0
   Ti      0.00000000      1.96794000      6.35973568
    O      0.00000000      0.00000000      6.00000000
    O      1.96794000      1.96794000      6.71947137
   Ti      0.00000000      5.90382000      6.35973568
    O      0.00000000      3.93588000      6.00000000
    O      1.96794000      5.90382000      6.71947137
   Ti      0.00000000      9.83970000      6.35973568
    O      0.00000000      7.87176000      6.00000000
    O      1.96794000      9.83970000      6.71947137
   Ti      0.00000000     13.77558000      6.35973568
    O      0.00000000     11.80764000      6.00000000
    O      1.96794000     13.77558000      6.71947137
    O      1.96555308     11.04031848     12.54028150
    O      3.92451219      9.41145867     11.18458527
    O      1.95024808      7.99333520      9.58438437
    O      0.00236254     12.52886140     10.99824815
    O      0.00130635     13.86695242      8.34521122
    O      0.01923250      1.88066343      4.36828195
    O      3.92690400      9.71335831      8.31876874
    O      1.98693564     15.48154133      3.80732949
   Ti      0.00309912     14.13167722     10.11850234
   Ti      3.93354115     11.01761526     12.09248581
   Ti      3.91798049      8.47391858      9.61658400
   Ti      0.01942276      0.07790997      4.07397677
    O      1.97103943     14.56992770     10.31461755
    O      3.93380246      5.88215050      8.35010029
   Ti      3.91026199      4.18236393      8.86371778
