   27
Geometry Step: 0
   Ti      0.00000000      1.96794000      6.35973568
    O      0.00000000      0.00000000      6.00000000
    O      1.96794000      1.96794000      6.71947137
   Ti      0.00000000      5.90382000      6.35973568
    O      0.00000000      3.93588000      6.00000000
    O      1.96794000      5.90382000      6.71947137
   Ti      0.00000000      9.83970000      6.35973568
    O      0.00000000      7.87176000      6.00000000
    O      1.96794000      9.83970000      6.71947137
   Ti      0.00000000     13.77558000      6.35973568
    O      0.00000000     11.80764000      6.00000000
    O      1.96794000     13.77558000      6.71947137
   Ti      2.18488423     15.49291904     11.31203666
    O      0.02097630      5.58598693      8.33492930
    O      0.20865476     15.72334013     11.73712279
   Ti      0.03558498      4.11866765      9.40691372
   Ti      0.21298214      1.89585416     12.03588564
    O      2.18265850      1.73819340     11.67553271
    O      0.01809374      2.29599806      8.40042029
   Ti      1.99084623      1.93481913      8.63066731
    O      0.04338044      4.65052525     11.21002500
    O      2.00313634      3.62906030      9.51729127
    O      0.25755674      2.23058498     13.78637835
    O      0.03433490     13.83564569      8.35363585
    O      2.06540118      0.16534424      9.36021200
   Ti      1.99260565     14.05460349      8.68059205
    O      2.09094842     13.65158534     10.58729405
