   27
Geometry Step: 0
   Ti      0.00000000      1.96794000      6.35973568
    O      0.00000000      0.00000000      6.00000000
    O      1.96794000      1.96794000      6.71947137
   Ti      0.00000000      5.90382000      6.35973568
    O      0.00000000      3.93588000      6.00000000
    O      1.96794000      5.90382000      6.71947137
   Ti      0.00000000      9.83970000      6.35973568
    O      0.00000000      7.87176000      6.00000000
    O      1.96794000      9.83970000      6.71947137
   Ti      0.00000000     13.77558000      6.35973568
    O      0.00000000     11.80764000      6.00000000
    O      1.96794000     13.77558000      6.71947137
    O      3.93573801      5.82087923      8.34967274
    O      1.95933027      7.59397202      9.28616445
    O      0.61989016     14.58379186     11.19414256
    O      3.75861254     12.10033968     11.56476456
    O      0.00592857     13.98611060      8.35105873
    O      1.86684662     10.53697756     10.17913011
   Ti      1.96790090      5.80797216      8.62592597
   Ti      1.80602362     11.92988096     11.27119815
    O      0.01263662      2.11505227      8.34601527
    O      3.91894813      9.59141659      8.33009901
   Ti      1.98269153      2.21049212      8.62257928
    O      1.98032277      4.00923783      9.28827617
   Ti      0.06507316     15.26182314      9.61960458
   Ti      1.95237319      9.38457811      8.65356202
    O      2.03241813      0.39972356      9.48617889
