   27
Geometry Step: 0
   Ti      0.00000000      1.96794000      6.35973568
    O      0.00000000      0.00000000      6.00000000
    O      1.96794000      1.96794000      6.71947137
   Ti      0.00000000      5.90382000      6.35973568
    O      0.00000000      3.93588000      6.00000000
    O      1.96794000      5.90382000      6.71947137
   Ti      0.00000000      9.83970000      6.35973568
    O      0.00000000      7.87176000      6.00000000
    O      1.96794000      9.83970000      6.71947137
   Ti      0.00000000     13.77558000      6.35973568
    O      0.00000000     11.80764000      6.00000000
    O      1.96794000     13.77558000      6.71947137
   Ti      1.96323007      1.75588758      8.61244601
    O      0.46615761      7.89145363      8.70337862
    O      1.95147576      3.53072941      9.29305885
    O      3.93175146      1.75827301      8.35155725
    O      2.08567175      9.39608293     10.19719039
   Ti      1.96564788     14.00778739      8.61254016
    O      1.95956570     12.23419051      9.29672376
    O      3.91876649      5.39241176      8.34247720
    O      1.96245855      0.01235038      9.39193270
   Ti      3.18253717      7.85913460     10.01681215
    O      3.93269393     10.38795230      8.33889587
    O      2.03326196      6.35863878     10.21623335
    O      3.93348898     14.00179863      8.34989584
   Ti      1.94579887      5.31196712      8.64043274
   Ti      1.96171593     10.45774613      8.63673940
