   27
Geometry Step: 0
   Ti      0.00000000      1.96794000      6.35973568
    O      0.00000000      0.00000000      6.00000000
    O      1.96794000      1.96794000      6.71947137
   Ti      0.00000000      5.90382000      6.35973568
    O      0.00000000      3.93588000      6.00000000
    O      1.96794000      5.90382000      6.71947137
   Ti      0.00000000      9.83970000      6.35973568
    O      0.00000000      7.87176000      6.00000000
    O      1.96794000      9.83970000      6.71947137
   Ti      0.00000000     13.77558000      6.35973568
    O      0.00000000     11.80764000      6.00000000
    O      1.96794000     13.77558000      6.71947137
   Ti      2.06466879     13.76962278      8.72074162
    O      1.21048394     14.04629426     10.39361179
   Ti      1.99357552      9.53562186      8.62432634
    O      0.01627695      9.71535416      8.35959291
    O      3.91019466      2.25157029      8.33293135
    O      1.69607879      1.24178920     10.08620510
   Ti      1.97328092      5.99997658      8.64394828
   Ti      1.94403359      2.45931431      8.66061796
   Ti      0.36707344     15.72052726     10.31000285
    O      3.01306885     12.21336346      8.82018914
    O      3.20605572     10.21691219     11.06947670
    O      3.35229594     15.16677956      8.82425100
    O      2.00591689      7.76651137      9.36552231
    O      0.00150289      5.99343312      8.34535830
    O      1.95939356      4.22932696      9.36056418
