   27
Geometry Step: 0
   Ti      0.00000000      1.96794000      6.35973568
    O      0.00000000      0.00000000      6.00000000
    O      1.96794000      1.96794000      6.71947137
   Ti      0.00000000      5.90382000      6.35973568
    O      0.00000000      3.93588000      6.00000000
    O      1.96794000      5.90382000      6.71947137
   Ti      0.00000000      9.83970000      6.35973568
    O      0.00000000      7.87176000      6.00000000
    O      1.96794000      9.83970000      6.71947137
   Ti      0.00000000     13.77558000      6.35973568
    O      0.00000000     11.80764000      6.00000000
    O      1.96794000     13.77558000      6.71947137
   Ti      1.94351955      6.60430835      8.64544960
    O      2.09107497     14.95785522     10.07742431
   Ti      1.84869203     13.63646252      8.73446362
   Ti      3.82499362      1.66699892     10.03931129
    O      1.85400342      5.71541212     10.34716911
   Ti      2.00086290     10.09824771      8.63981876
    O      3.85349285     13.75148437      8.32963730
   Ti      1.76564668      3.89366576     10.64313085
    O      1.80191491      1.98797283     10.77578859
    O      3.91271985      6.34050414      8.43829631
    O      2.01264507     11.88426243      9.42861485
    O      1.95107048      8.37320970      9.32664208
    O      0.06884401      1.02789111      8.40266601
    O      0.02639622     10.10752705      8.36042874
    O      3.87328678      3.57459764      9.88868567
