   27
Geometry Step: 0
   Ti      0.00000000      1.96794000      6.35973568
    O      0.00000000      0.00000000      6.00000000
    O      1.96794000      1.96794000      6.71947137
   Ti      0.00000000      5.90382000      6.35973568
    O      0.00000000      3.93588000      6.00000000
    O      1.96794000      5.90382000      6.71947137
   Ti      0.00000000      9.83970000      6.35973568
    O      0.00000000      7.87176000      6.00000000
    O      1.96794000      9.83970000      6.71947137
   Ti      0.00000000     13.77558000      6.35973568
    O      0.00000000     11.80764000      6.00000000
    O      1.96794000     13.77558000      6.71947137
   Ti      1.97343406      2.28580152      8.65593144
    O      1.90249047      8.07567473     10.12204375
    O      1.98866860      4.06994035      9.10599064
    O      1.93898430     12.30729107     12.87630787
    O      1.98460597      0.92884146      9.88018506
   Ti      1.95903896      8.46449415      8.17107420
    O      3.86041779      9.88954260     11.39736097
    O      3.92815613      6.37621261      8.33732393
   Ti      2.40999746     11.12617049     11.58376539
   Ti      3.85228226      8.15172264     10.65084806
    O      2.39027824     11.52120663      9.26175915
    O      3.89010427      9.41016614      8.30489992
    O      0.00011766      2.16713904      8.32620362
   Ti      0.43358727     11.27692002      8.89863873
    O      0.05427521     13.82384522      8.27807055
