   27
Geometry Step: 0
   Ti      0.00000000      1.96794000      6.35973568
    O      0.00000000      0.00000000      6.00000000
    O      1.96794000      1.96794000      6.71947137
   Ti      0.00000000      5.90382000      6.35973568
    O      0.00000000      3.93588000      6.00000000
    O      1.96794000      5.90382000      6.71947137
   Ti      0.00000000      9.83970000      6.35973568
    O      0.00000000      7.87176000      6.00000000
    O      1.96794000      9.83970000      6.71947137
   Ti      0.00000000     13.77558000      6.35973568
    O      0.00000000     11.80764000      6.00000000
    O      1.96794000     13.77558000      6.71947137
    O      3.92964774      2.02239920      8.32825891
   Ti      2.04293188     14.28845186      8.76527259
   Ti      2.08730185     10.48588241     10.39753287
    O      2.11599079     13.37061972     10.62730723
    O      1.96604825      3.71871366      9.52074996
    O      0.00122451     10.64455324      8.19358831
   Ti      1.95659765      5.50084332      8.84920645
   Ti      0.05268669     12.88893888     11.43710119
    O      1.95623570      6.07448571     10.65251607
    O      1.94760809      0.30806328      9.43563331
    O      1.93735158      8.81818579      9.79891714
    O      3.92798657      5.71239785      8.37112419
    O      0.07366968     14.08277439      8.37328598
    O      0.10412208     10.96496138     11.02465333
   Ti      1.95932153      2.04432019      8.66452615
