   27
Geometry Step: 0
   Ti      0.00000000      1.96794000      6.35973568
    O      0.00000000      0.00000000      6.00000000
    O      1.96794000      1.96794000      6.71947137
   Ti      0.00000000      5.90382000      6.35973568
    O      0.00000000      3.93588000      6.00000000
    O      1.96794000      5.90382000      6.71947137
   Ti      0.00000000      9.83970000      6.35973568
    O      0.00000000      7.87176000      6.00000000
    O      1.96794000      9.83970000      6.71947137
   Ti      0.00000000     13.77558000      6.35973568
    O      0.00000000     11.80764000      6.00000000
    O      1.96794000     13.77558000      6.71947137
    O      1.96831477      8.04934322      9.31316065
   Ti      1.97925472      0.17140960     11.17699009
    O      1.96886312     11.60606277      9.32297265
   Ti      1.96937890     13.37884624      8.61153994
    O      3.93517981     13.49069758      8.33068322
    O      1.96837006      4.85198476      9.80289922
    O      0.00024764      6.16232234      8.33304272
   Ti      1.96750902      3.72340183     11.21536591
   Ti      1.96797685      6.26455427      8.62425724
    O      0.00109742      1.98438931      8.26302488
    O      1.97183035      1.97206414     10.80654273
   Ti      1.96811615      9.82847413      8.63166544
    O      3.93581713      9.83107527      8.35489628
    O      3.93553527      3.82829221     11.66218235
    O      1.97040050     14.77478596      9.75556698
