   27
Geometry Step: 0
   Ti      0.00000000      1.96794000      6.35973568
    O      0.00000000      0.00000000      6.00000000
    O      1.96794000      1.96794000      6.71947137
   Ti      0.00000000      5.90382000      6.35973568
    O      0.00000000      3.93588000      6.00000000
    O      1.96794000      5.90382000      6.71947137
   Ti      0.00000000      9.83970000      6.35973568
    O      0.00000000      7.87176000      6.00000000
    O      1.96794000      9.83970000      6.71947137
   Ti      0.00000000     13.77558000      6.35973568
    O      0.00000000     11.80764000      6.00000000
    O      1.96794000     13.77558000      6.71947137
   Ti      1.95283804      5.78313086      8.65238908
    O      3.91890100      5.72557507      8.32748706
   Ti      1.94081085      9.46866033      8.59551318
    O      3.90058091      9.52224331      8.32061108
    O      1.70526161     11.16230954      9.48617030
    O      1.90656136      4.20267774      9.71180704
   Ti      1.02366611      2.55333789      9.73764920
    O      0.00427299      2.46193800      8.24637771
   Ti      0.72952066     12.70284775      9.70101786
    O      3.90866190      2.42434646     11.14212455
    O      3.90587471     13.89664186      8.40995686
    O      2.09639300      0.99397574      9.57046960
    O      1.84777672     13.90905550     10.54097971
   Ti      2.59794204     15.03849044      9.30325180
    O      1.92150845      7.64435895      9.10807712
