   27
Geometry Step: 0
   Ti      0.00000000      1.96794000      6.35973568
    O      0.00000000      0.00000000      6.00000000
    O      1.96794000      1.96794000      6.71947137
   Ti      0.00000000      5.90382000      6.35973568
    O      0.00000000      3.93588000      6.00000000
    O      1.96794000      5.90382000      6.71947137
   Ti      0.00000000      9.83970000      6.35973568
    O      0.00000000      7.87176000      6.00000000
    O      1.96794000      9.83970000      6.71947137
   Ti      0.00000000     13.77558000      6.35973568
    O      0.00000000     11.80764000      6.00000000
    O      1.96794000     13.77558000      6.71947137
   Ti      1.26538465     14.40570497      9.47214558
    O      2.06728446      0.04013404      8.69867307
    O      2.00611847      7.61992977      9.84881552
    O      2.00001838      4.38870100      9.49719196
   Ti      1.99113795      5.94760834      8.69762597
   Ti      2.92584933     11.52378199     10.71232692
    O      1.63349662     10.28668152     10.62372737
    O      3.90095622      9.52482170      8.34403550
    O      3.82859528     11.55210804     12.28017200
    O      0.00780153     13.60184152      8.35538849
    O      0.01762118      6.37830956      8.40231732
   Ti      1.96882354      3.11062749      4.05635192
    O      2.18837867     13.16923777     10.55517334
   Ti      0.01957337      8.08859893      9.51907710
    O      0.01223617      2.18910799      8.27504830
