   27
Geometry Step: 0
   Ti      0.00000000      1.96794000      6.35973568
    O      0.00000000      0.00000000      6.00000000
    O      1.96794000      1.96794000      6.71947137
   Ti      0.00000000      5.90382000      6.35973568
    O      0.00000000      3.93588000      6.00000000
    O      1.96794000      5.90382000      6.71947137
   Ti      0.00000000      9.83970000      6.35973568
    O      0.00000000      7.87176000      6.00000000
    O      1.96794000      9.83970000      6.71947137
   Ti      0.00000000     13.77558000      6.35973568
    O      0.00000000     11.80764000      6.00000000
    O      1.96794000     13.77558000      6.71947137
    O      0.08090090      9.59780905      8.24212857
   Ti      2.46929038     12.23642649      9.46123655
    O      2.00778340      4.02905107      9.64134250
    O      0.19763848      2.09656076      8.33322160
   Ti      1.94107758      5.69205417      8.73089342
    O      0.89959647     15.23886798     12.23634230
   Ti      0.39506817      8.50363527      9.68438476
    O      1.83096175      7.29075180      9.87303925
   Ti      2.88817044     15.06930759     11.67842205
    O      0.54834810     12.47029646      8.90596966
    O      3.90907864      5.89356335      8.35732801
    O      2.68292759     13.33360257     10.98761093
    O      2.77901253      0.67127684     10.46384108
   Ti      2.89411796      2.35295407      9.59803272
    O      2.36053803     10.55181795     10.28500114
