   27
Geometry Step: 0
   Ti      0.00000000      1.96794000      6.35973568
    O      0.00000000      0.00000000      6.00000000
    O      1.96794000      1.96794000      6.71947137
   Ti      0.00000000      5.90382000      6.35973568
    O      0.00000000      3.93588000      6.00000000
    O      1.96794000      5.90382000      6.71947137
   Ti      0.00000000      9.83970000      6.35973568
    O      0.00000000      7.87176000      6.00000000
    O      1.96794000      9.83970000      6.71947137
   Ti      0.00000000     13.77558000      6.35973568
    O      0.00000000     11.80764000      6.00000000
    O      1.96794000     13.77558000      6.71947137
    O      1.97065469      7.43062986      9.53640753
    O      0.08551225      2.36157507      8.33173260
    O      1.88440470      4.30680255      9.89636637
    O      2.09367576     13.24492857     10.64058131
    O      3.91346072     14.46761414      8.31407765
    O      1.90400592      0.78726872      4.44007145
    O      3.88990733      5.48660926      8.41377868
    O      1.99697118     10.31550189      9.96322580
    O      0.12672680     11.98627243      8.77887962
   Ti      2.10130125     12.02661197      9.16137075
   Ti      0.15889077     13.77103366     10.71411865
    O      0.00121076      9.19212923      8.25589698
   Ti      1.92181138      5.86706667      8.63505556
   Ti      1.96707799      9.05084612      8.57768181
   Ti      3.91619351      3.79210263      9.45825722
